 Gaussian 16, Revision B.01,
 Gaussian 16:  ES64L-G16RevB.01 20-Dec-2017

 ------------------------------------
 #p opt cam-b3lyp/6-311+G(d,p) nosymm
 ------------------------------------

 ------
 Uracil
 ------
 Symbolic Z-matrix:
 Charge =  0 Multiplicity = 1

 SCF Done:  E(RCAM-B3LYP) =  -414.770071948     A.U. after   14 cycles

 Alpha  occ. eigenvalues --  -19.19043 -19.18498 -14.46871 -14.45137 -10.41485
 Alpha  occ. eigenvalues --  -10.38058 -10.34157 -10.27386  -1.18339  -1.14825
 Alpha  occ. eigenvalues --   -1.08180  -1.02634  -0.89851  -0.78502  -0.75623
 Alpha  occ. eigenvalues --   -0.68760  -0.65063  -0.60693  -0.57377  -0.55833
 Alpha  occ. eigenvalues --   -0.53737  -0.50808  -0.50252  -0.49392  -0.45272
 Alpha  occ. eigenvalues --   -0.38102  -0.36552  -0.34867  -0.32450
 Alpha virt. eigenvalues --   -0.01305   0.00608   0.03659   0.04035   0.04196
 Alpha virt. eigenvalues --    0.05992   0.06585   0.07896   0.08357   0.09748
 Alpha virt. eigenvalues --    0.11110   0.11224   0.11836   0.14079   0.14519

 Mulliken charges:
               1
     1  C    0.406694
     2  C   -0.041604
     3  C    0.003470
     4  C    0.169654
     5  N   -0.438679
     6  H    0.160236
     7  H    0.162723
     8  O   -0.339754
     9  O   -0.368000
    10  N   -0.386992
    11  H    0.330830
    12  H    0.341423
 Sum of Mulliken charges =  -0.00000

 Dipole moment (field-independent basis, Debye):
    X=             -1.1331    Y=             -4.4800    Z=             -0.0000  Tot=              4.6210
 Quadrupole moment (field-independent basis, Debye-Ang):
   XX=            -59.1952   YY=            -38.5389   ZZ=            -46.7590
   XY=              1.6617   XZ=              0.0000   YZ=             -0.0000

 Optimization completed.
    -- Stationary point found.

                          Input orientation:
 ---------------------------------------------------------------------
 Center     Atomic      Atomic             Coordinates (Angstroms)
 Number     Number       Type             X           Y           Z
 ---------------------------------------------------------------------
      1          6           0       -1.228274    0.360852    0.000000
      2          6           0        0.055847   -1.700239    0.000000
      3          6           0        1.234753   -1.065003    0.000000
      4          6           0        1.270191    0.390911    0.000000
      5          7           0       -0.000359    0.986164    0.000000
      6          1           0       -0.025317   -2.779266    0.000000
      7          1           0        2.173067   -1.596674    0.000000
      8          8           0        2.265971    1.076801    0.000000
      9          8           0       -2.283998    0.946280    0.000000
     10          7           0       -1.136647   -1.021375    0.000000
     11          1           0       -2.018580   -1.509722    0.000000
     12          1           0       -0.022563    1.997828    0.000000
 ---------------------------------------------------------------------

 Normal termination of Gaussian 16 at Tue Nov 22 10:49:29 2022.
